 argument  1 = NH3.nw
                                         
                                         


              Northwest Computational Chemistry Package (NWChem) 6.5
              ------------------------------------------------------


                    Environmental Molecular Sciences Laboratory
                       Pacific Northwest National Laboratory
                                Richland, WA 99352

                              Copyright (c) 1994-2013
                       Pacific Northwest National Laboratory
                            Battelle Memorial Institute

             NWChem is an open-source computational chemistry package
                        distributed under the terms of the
                      Educational Community License (ECL) 2.0
             A copy of the license is included with this distribution
                              in the LICENSE.TXT file

                                  ACKNOWLEDGMENT
                                  --------------

            This software and its documentation were developed at the
            EMSL at Pacific Northwest National Laboratory, a multiprogram
            national laboratory, operated for the U.S. Department of Energy
            by Battelle under Contract Number DE-AC05-76RL01830. Support
            for this work was provided by the Department of Energy Office
            of Biological and Environmental Research, Office of Basic
            Energy Sciences, and the Office of Advanced Scientific Computing.


           Job information
           ---------------

    hostname        = mbe-laptop
    program         = nwchem
    date            = Sat Jun 27 02:24:22 2015

    compiled        = Sun_Jun_21_14:33:32_2015
    source          = /opt/science/nwchem/Nwchem-dev.revision27151-src.2015-05-26
    nwchem branch   = Development
    nwchem revision = 27151
    ga revision     = 10558
    input           = NH3.nw
    prefix          = NH3.
    data base       = ./NH3.db
    status          = restart
    nproc           =        1
    time left       =     -1s



           Memory information
           ------------------

    heap     =  249999996 doubles =   1907.3 Mbytes
    stack    =  250000001 doubles =   1907.3 Mbytes
    global   =  500000000 doubles =   3814.7 Mbytes (distinct from heap & stack)
    total    =  999999997 doubles =   7629.4 Mbytes
    verify   = yes
    hardfail = no 


           Directory information
           ---------------------

  0 permanent = .
  0 scratch   = .


           Previous task information
           -------------------------

    Theory    = mp2                             
    Operation =                               
    Status    = ok                            
    Qmmm      = F
    Ignore    = F


           Geometries in the database
           --------------------------

       Name                              Natoms  Last Modified
       --------------------------------  ------  ------------------------
    1  driverinitial                          4  Sat Jun 27 02:23:41 2015  
    2  geometry                               4  Sat Jun 27 02:23:43 2015  

  The geometry named "geometry" is the default for restart



           Basis sets in the database
           --------------------------

       Name                              Natoms  Last Modified
        --------------------------------  ------  ------------------------
    1  ao basis                               0  Sat Jun 27 02:23:43 2015  

  The basis set named "ao basis" is the default AO basis for restart




                                NWChem Input Module
                                -------------------


                                      ammonia
                                      -------

 Scaling coordinates for geometry "geometry" by  1.889725989
 (inverse scale =  0.529177249)

 Turning off AUTOSYM since
 SYMMETRY directive was detected!


          ------
          auto-z
          ------
  Looking for out-of-plane bends


                             Geometry "geometry" -> ""
                             -------------------------

 Output coordinates in angstroms (scale by  1.889725989 to convert to a.u.)

  No.       Tag          Charge          X              Y              Z
 ---- ---------------- ---------- -------------- -------------- --------------
    1 N                    7.0000    -0.03768500     0.09605800     0.05387200
    2 H                    1.0000     0.97714500     0.04127800     0.02310200
    3 H                    1.0000    -0.35671500     0.04127800    -0.91000800
    4 H                    1.0000    -0.35663500    -0.75496200     0.50980200

      Atomic Mass 
      ----------- 

      N                 14.003070
      H                  1.007825


 Effective nuclear repulsion energy (a.u.)      11.9045936500

            Nuclear Dipole moment (a.u.) 
            ----------------------------
        X                 Y               Z
 ---------------- ---------------- ----------------
    -0.0000000000     0.0000000000    -0.0000000000



                                Z-matrix (autoz)
                                -------- 

 Units are Angstrom for bonds and degrees for angles

      Type          Name      I     J     K     L     M      Value
      ----------- --------  ----- ----- ----- ----- ----- ----------
    1 Stretch                  1     2                       1.01677
    2 Stretch                  1     3                       1.01678
    3 Stretch                  1     4                       1.01678
    4 Bend                     2     1     3               106.35418
    5 Bend                     2     1     4               106.35359
    6 Bend                     3     1     4               106.35334


            XYZ format geometry
            -------------------
     4
 geometry
 N                    -0.03768500     0.09605800     0.05387200
 H                     0.97714500     0.04127800     0.02310200
 H                    -0.35671500     0.04127800    -0.91000800
 H                    -0.35663500    -0.75496200     0.50980200

 ==============================================================================
                                internuclear distances
 ------------------------------------------------------------------------------
       center one      |      center two      | atomic units |  angstroms
 ------------------------------------------------------------------------------
    2 H                |   1 N                |     1.92142  |     1.01677
    3 H                |   1 N                |     1.92144  |     1.01678
    4 H                |   1 N                |     1.92143  |     1.01678
 ------------------------------------------------------------------------------
                         number of included internuclear distances:          3
 ==============================================================================



 ==============================================================================
                                 internuclear angles
 ------------------------------------------------------------------------------
        center 1       |       center 2       |       center 3       |  degrees
 ------------------------------------------------------------------------------
    2 H                |   1 N                |   3 H                |   106.35
    2 H                |   1 N                |   4 H                |   106.35
    3 H                |   1 N                |   4 H                |   106.35
 ------------------------------------------------------------------------------
                            number of included internuclear angles:          3
 ==============================================================================



  library name resolved from: environment
  library file name is: </opt/science/nwchem/current/src/basis/libraries/>
  
 SCF residual:    3.7097755270496872E-008

 Derivative Dipole

  
  
 X vector of derivative dipole (au) [debye/angstrom]
 d_dipole_x/<atom=   1,x> =    -0.4153     [   -1.9950]
 d_dipole_x/<atom=   1,y> =     0.0887     [    0.4261]
 d_dipole_x/<atom=   1,z> =     0.0497     [    0.2389]
 d_dipole_x/<atom=   2,x> =     0.0054     [    0.0258]
 d_dipole_x/<atom=   2,y> =     0.0922     [    0.4431]
 d_dipole_x/<atom=   2,z> =     0.0517     [    0.2486]
 d_dipole_x/<atom=   3,x> =     0.2050     [    0.9846]
 d_dipole_x/<atom=   3,y> =    -0.0788     [   -0.3786]
 d_dipole_x/<atom=   3,z> =    -0.0715     [   -0.3436]
 d_dipole_x/<atom=   4,x> =     0.2050     [    0.9846]
 d_dipole_x/<atom=   4,y> =    -0.1021     [   -0.4905]
 d_dipole_x/<atom=   4,z> =    -0.0299     [   -0.1439]
  
 Y vector of derivative dipole (au) [debye/angstrom]
 d_dipole_y/<atom=   1,x> =     0.0887     [    0.4260]
 d_dipole_y/<atom=   1,y> =    -0.6066     [   -2.9135]
 d_dipole_y/<atom=   1,z> =    -0.1268     [   -0.6090]
 d_dipole_y/<atom=   2,x> =     0.0023     [    0.0112]
 d_dipole_y/<atom=   2,y> =     0.2736     [    1.3142]
 d_dipole_y/<atom=   2,z> =     0.0502     [    0.2413]
 d_dipole_y/<atom=   3,x> =    -0.0480     [   -0.2306]
 d_dipole_y/<atom=   3,y> =     0.2736     [    1.3142]
 d_dipole_y/<atom=   3,z> =     0.0150     [    0.0722]
 d_dipole_y/<atom=   4,x> =    -0.0430     [   -0.2067]
 d_dipole_y/<atom=   4,y> =     0.0594     [    0.2851]
 d_dipole_y/<atom=   4,z> =     0.0615     [    0.2954]
  
 Z vector of derivative dipole (au) [debye/angstrom]
 d_dipole_z/<atom=   1,x> =     0.0497     [    0.2389]
 d_dipole_z/<atom=   1,y> =    -0.1268     [   -0.6090]
 d_dipole_z/<atom=   1,z> =    -0.4516     [   -2.1693]
 d_dipole_z/<atom=   2,x> =     0.0013     [    0.0063]
 d_dipole_z/<atom=   2,y> =     0.0502     [    0.2413]
 d_dipole_z/<atom=   2,z> =     0.2122     [    1.0193]
 d_dipole_z/<atom=   3,x> =    -0.0211     [   -0.1014]
 d_dipole_z/<atom=   3,y> =    -0.0694     [   -0.3335]
 d_dipole_z/<atom=   3,z> =     0.0126     [    0.0605]
 d_dipole_z/<atom=   4,x> =    -0.0299     [   -0.1439]
 d_dipole_z/<atom=   4,y> =     0.1460     [    0.7012]
 d_dipole_z/<atom=   4,z> =     0.2268     [    1.0896]
  
  


  Vibrational analysis via the FX method 

  See chapter 2 in "Molecular Vibrations" by Wilson, Decius and Cross

  Vib: Default input used 

  Nuclear Hessian passed symmetry test 



 ---------------------------- Atom information ----------------------------
     atom    #        X              Y              Z            mass
 --------------------------------------------------------------------------
    N        1 -6.3084920D-02  1.6080257D-01  9.0172393D-02  1.4003070D+01
    H        2  1.8291546D+00  8.0544551D-02  4.5054850D-02  1.0078250D+00
    H        3 -6.6944593D-01  8.0544139D-02 -1.7028489D+00  1.0078250D+00
    H        4 -6.6933784D-01 -1.4110311D+00  9.5680175D-01  1.0078250D+00
 --------------------------------------------------------------------------




          ----------------------------------------------------
          MASS-WEIGHTED NUCLEAR HESSIAN (Hartree/Bohr/Bohr/Kamu)
          ----------------------------------------------------


               1            2            3            4            5            6            7            8            9           10
   ----- ----- ----- ----- -----
    1    4.94190D+01
    2    9.07401D+00  2.98415D+01
    3    5.09097D+00 -1.29711D+01  4.57032D+01
    4   -1.28797D+02 -5.56680D-01 -3.06578D-01  5.06325D+02
    5    1.42474D+01 -9.42707D+00  6.23540D+00 -7.08908D+00  3.66135D+01
    6    7.99628D+00  6.23605D+00 -1.70502D+01 -3.99851D+00 -1.95332D+01  6.04913D+01
    7   -2.77085D+01 -5.66728D+00 -2.88976D+01 -1.31197D+01 -1.82290D+00 -5.06831D+01  1.10320D+02
    8   -1.07422D+01 -9.42696D+00 -1.12462D+01  2.88121D+00 -2.53535D+00  8.89029D-01  2.07799D+01  3.66131D+01
    9   -3.72004D+01  2.66089D+00 -1.18139D+02  5.60443D+00 -2.40175D+00  3.33245D+00  1.40530D+02 -3.71123D-02  4.56499D+02
   10   -2.77047D+01 -2.75995D+01  1.02275D+01 -1.31144D+01 -4.41953D+01  2.48755D+01  6.08349D+00  1.63804D+01 -7.46954D+00  1.10300D+02
   11   -3.73287D+01 -9.23807D+01  5.33608D+01  6.28317D+00  1.06141D+00 -4.60073D+00  2.16775D+00  1.06143D+00 -7.47968D+00  1.30692D+02
   12    1.02275D+01  3.94531D+01 -3.51701D+01 -4.62993D-01 -1.30750D+00 -2.69093D-01  1.78690D+01  4.10685D+01 -1.94670D+01 -5.55291D+01


              11           12
   ----- ----- ----- ----- -----
   11    3.42227D+02
   12   -1.86823D+02  1.50833D+02



          -------------------------------------------------
          NORMAL MODE EIGENVECTORS IN CARTESIAN COORDINATES
          -------------------------------------------------
                 (Frequencies expressed in cm-1)

                    1           2           3           4           5           6
 
 Frequency        -10.96       -0.60       -0.07        0.60        6.13       11.69
 
           1     0.03897     0.14841     0.13932    -0.13160    -0.01403     0.02456
           2    -0.00025    -0.01602    -0.15684    -0.18412    -0.00050     0.02848
           3     0.02724    -0.19079     0.12140    -0.08681    -0.01197    -0.03503
           4     0.00910     0.14848     0.13920    -0.13157    -0.00148     0.00490
           5    -0.35621    -0.01525    -0.16218    -0.18224     0.44989    -0.45204
           6    -0.59194    -0.18897     0.12566    -0.08865    -0.28682    -0.00525
           7    -0.55254     0.15024     0.14319    -0.13316    -0.26916     0.00798
           8     0.36519    -0.01453    -0.15361    -0.18216    -0.48141    -0.41385
           9     0.21092    -0.19147     0.11994    -0.08637     0.09583    -0.00963
          10     0.01654     0.14814     0.13287    -0.12931     0.49974    -0.36366
          11    -0.00472    -0.01708    -0.15584    -0.18593     0.01389     0.46347
          12     0.00344    -0.19290     0.11869    -0.08849     0.37352     0.48235

                    7           8           9          10          11          12
 
 Frequency       1208.91     1849.49     1849.52     3689.40     3822.32     3822.55
 
           1     0.03435    -0.03197     0.05240    -0.01219    -0.03712     0.06218
           2    -0.08754    -0.03663    -0.00089     0.03123    -0.04318    -0.00062
           3    -0.04910     0.04295     0.03824     0.01742     0.05113     0.04461
           4     0.02346    -0.02787     0.04562     0.56879     0.39963    -0.66840
           5     0.45989     0.18564     0.38987     0.00865    -0.02136     0.01915
           6     0.25794    -0.61931    -0.22274     0.00480     0.00517     0.02102
           7    -0.25035     0.60002    -0.16470    -0.19950    -0.13575    -0.21344
           8     0.45989     0.20433    -0.38041     0.00865    -0.02079    -0.01976
           9     0.06639    -0.19171     0.11005    -0.53262    -0.35510    -0.64569
          10    -0.25036    -0.12799    -0.60897    -0.19995     0.25188     0.01792
          11     0.29655     0.11901     0.00289    -0.45117     0.64212     0.00928
          12     0.35789     0.21423    -0.41864     0.28582    -0.36050     0.00478


        Vibrational analysis via the FX method 
  --- with translations and rotations projected out ---
  --- via the Eckart algorithm                      ---

          --------------------------------------------------------
          MASS-WEIGHTED PROJECTED HESSIAN (Hartree/Bohr/Bohr/Kamu)
          --------------------------------------------------------


               1            2            3            4            5            6            7            8            9           10
   ----- ----- ----- ----- -----
    1    4.94189D+01
    2    9.07404D+00  2.98417D+01
    3    5.09102D+00 -1.29712D+01  4.57030D+01
    4   -1.28797D+02 -5.56503D-01 -3.06515D-01  5.06325D+02
    5    1.42483D+01 -9.42793D+00  6.23540D+00 -7.08961D+00  3.66186D+01
    6    7.99565D+00  6.23577D+00 -1.70508D+01 -3.99885D+00 -1.95334D+01  6.04936D+01
    7   -2.77093D+01 -5.66706D+00 -2.88979D+01 -1.31200D+01 -1.82370D+00 -5.06810D+01  1.10322D+02
    8   -1.07424D+01 -9.42793D+00 -1.12470D+01  2.88108D+00 -2.53690D+00  8.89919D-01  2.07802D+01  3.66186D+01
    9   -3.72001D+01  2.66058D+00 -1.18139D+02  5.60443D+00 -2.40134D+00  3.33146D+00  1.40529D+02 -3.67071D-02  4.56499D+02
   10   -2.77034D+01 -2.76000D+01  1.02276D+01 -1.31136D+01 -4.41973D+01  2.48760D+01  6.08458D+00  1.63813D+01 -7.46971D+00  1.10294D+02
   11   -3.73294D+01 -9.23794D+01  5.33618D+01  6.28290D+00  1.06106D+00 -4.60046D+00  2.16758D+00  1.06104D+00 -7.47931D+00  1.30695D+02
   12    1.02276D+01  3.94538D+01 -3.51689D+01 -4.63045D-01 -1.30783D+00 -2.67989D-01  1.78692D+01  4.10701D+01 -1.94662D+01 -5.55296D+01


              11           12
   ----- ----- ----- ----- -----
   11    3.42223D+02
   12   -1.86827D+02  1.50827D+02

 center of mass
 --------------
 x =  -0.02285693 y =   0.05826235 z =   0.03266739

 moments of inertia (a.u.)
 ------------------
           6.266705162124          -0.926610305153          -0.519564317856
          -0.926610305153           8.264757172961           1.324574163693
          -0.519564317856           1.324574163693           6.645955806812

 Rotational Constants
 --------------------
 A=  10.198241 cm-1  ( 14.672667 K)
 B=  10.197813 cm-1  ( 14.672050 K)
 C=   6.423971 cm-1  (  9.242454 K)


 Temperature                      =   298.15K
 frequency scaling parameter      =   1.0000

 Zero-Point correction to Energy  =   23.208 kcal/mol  (  0.036985 au)
 Thermal correction to Energy     =   24.996 kcal/mol  (  0.039834 au)
 Thermal correction to Enthalpy   =   25.589 kcal/mol  (  0.040778 au)

 Total Entropy                    =   48.019 cal/mol-K
   - Translational                =   34.425 cal/mol-K (mol. weight =  17.0265)
   - Rotational                   =   13.549 cal/mol-K (symmetry #  =        1)
   - Vibrational                  =    0.045 cal/mol-K

 Cv (constant volume heat capacity) =    6.200 cal/mol-K
   - Translational                  =    2.979 cal/mol-K
   - Rotational                     =    2.979 cal/mol-K
   - Vibrational                    =    0.241 cal/mol-K



          -------------------------------------------------
          NORMAL MODE EIGENVECTORS IN CARTESIAN COORDINATES
          -------------------------------------------------
             (Projected Frequencies expressed in cm-1)

                    1           2           3           4           5           6
 
 P.Frequency       -0.00       -0.00        0.00        0.00        0.00        0.00
 
           1    -0.00755     0.01127    -0.00446     0.24659    -0.00068    -0.00775
           2    -0.00447    -0.03538     0.00786     0.00251    -0.23781    -0.04087
           3    -0.02833     0.00394    -0.24435    -0.00437    -0.00131    -0.01549
           4    -0.02823    -0.01851    -0.00157     0.24014     0.00546    -0.00191
           5    -0.12372    -0.74585     0.00173    -0.09853    -0.09224     0.05905
           6    -0.68356     0.01909    -0.11230    -0.09536    -0.00274     0.05207
           7    -0.63210    -0.00944     0.11664     0.15543     0.01256     0.03252
           8     0.06735     0.07194    -0.08206     0.01888    -0.07912    -0.75515
           9     0.17966     0.00613    -0.28128     0.02573    -0.01289     0.00286
          10     0.19211    -0.58090    -0.06626     0.20499     0.11247     0.07232
          11     0.01789     0.24898     0.05314     0.04244    -0.38127     0.24879
          12     0.15188     0.10544    -0.20545     0.03895    -0.18235     0.56588

                    7           8           9          10          11          12
 
 P.Frequency     1208.91     1849.49     1849.53     3689.40     3822.32     3822.55
 
           1     0.03435    -0.03164     0.05259    -0.01219    -0.03712     0.06218
           2    -0.08755    -0.03664    -0.00066     0.03123    -0.04318    -0.00062
           3    -0.04910     0.04319     0.03797     0.01742     0.05113     0.04461
           4     0.02346    -0.02759     0.04579     0.56879     0.39959    -0.66842
           5     0.45994     0.18805     0.38874     0.00865    -0.02136     0.01916
           6     0.25793    -0.62068    -0.21892     0.00480     0.00517     0.02102
           7    -0.25034     0.59900    -0.16842    -0.19950    -0.13576    -0.21344
           8     0.45994     0.20197    -0.38170     0.00865    -0.02080    -0.01976
           9     0.06639    -0.19103     0.11124    -0.53262    -0.35513    -0.64567
          10    -0.25032    -0.13174    -0.60814    -0.19995     0.25188     0.01791
          11     0.29650     0.11901     0.00215    -0.45117     0.64212     0.00924
          12     0.35783     0.21162    -0.41994     0.28582    -0.36050     0.00480
 vib:animation  F
 SCF residual:    3.7097755845514161E-008
 SCF residual:    1.8417322700873812E-007
 SCF residual:    2.9958046868792209E-008
  unset: mp2:etrip
  unset: mp2:energy
  unset: mp2:esing
  unset: mp2:frozen core:freeze by atoms
  unset: mp2:number frozen core
  unset: mp2:gradient
  unset: mp2:nonseparable gradient
  unset: mp2:dipole
  unset: mp2:escf
  unset: mp2:correlation energy
 g_st2 size:       1 MB
 mem. avail     3814 MB
Memory based method: ST2 is allocated
 ST2 array is replicated      0.00s
 g_st2 size:       1 MB
 mem. avail     3814 MB
Memory based method: ST2 is allocated
 ST2 array is replicated      0.00s
 g_st2 size:       1 MB
 mem. avail     3814 MB
Memory based method: ST2 is allocated
 ST2 array is replicated      0.00s
 g_st2 size:       1 MB
 mem. avail     3814 MB
Memory based method: ST2 is allocated
 ST2 array is replicated      0.00s
 g_st2 size:       1 MB
 mem. avail     3814 MB
Memory based method: ST2 is allocated
 ST2 array is replicated      0.00s
 g_st2 size:       1 MB
 mem. avail     3814 MB
Memory based method: ST2 is allocated
 ST2 array is replicated      0.00s
 g_st2 size:       1 MB
 mem. avail     3814 MB
Memory based method: ST2 is allocated
 ST2 array is replicated      0.00s
 g_st2 size:       1 MB
 mem. avail     3814 MB
Memory based method: ST2 is allocated
 ST2 array is replicated      0.00s
 g_st2 size:       1 MB
 mem. avail     3814 MB
Memory based method: ST2 is allocated
 ST2 array is replicated      0.00s
 g_st2 size:       1 MB
 mem. avail     3814 MB
Memory based method: ST2 is allocated
 ST2 array is replicated      0.00s
 commencing integral evaluation        1 at           4.23
  symmetry use  F
 ccsd(t): done        1 out of       16 progress:    6.2%
 ccsd(t): done        2 out of       16 progress:   12.5%
 ccsd(t): done        3 out of       16 progress:   18.8%
 ccsd(t): done        4 out of       16 progress:   25.0%
 ccsd(t): done        5 out of       16 progress:   31.2%
 ccsd(t): done        6 out of       16 progress:   37.5%
 ccsd(t): done        7 out of       16 progress:   43.8%
 ccsd(t): done        8 out of       16 progress:   50.0%
 ccsd(t): done        9 out of       16 progress:   56.2%
 ccsd(t): done       10 out of       16 progress:   62.5%
 ccsd(t): done       11 out of       16 progress:   68.8%
 ccsd(t): done       12 out of       16 progress:   75.0%
 ccsd(t): done       13 out of       16 progress:   81.2%
 ccsd(t): done       14 out of       16 progress:   87.5%
 ccsd(t): done       15 out of       16 progress:   93.8%
 ccsd(t): done       16 out of       16 progress:  100.0%
  library name resolved from: environment
  library file name is: </opt/science/nwchem/current/src/basis/libraries/>
  


 Summary of "ao basis" -> "" (spherical)
 ------------------------------------------------------------------------------
       Tag                 Description            Shells   Functions and Types
 ---------------- ------------------------------  ------  ---------------------
 *                         g3mp2large                 on all atoms 


  unset: mp2:etrip
  unset: mp2:energy
  unset: mp2:esing
  unset: mp2:frozen core:freeze by atoms
  unset: mp2:number frozen core
  unset: mp2:escf
  unset: mp2:correlation energy
                      Basis "ao basis" -> "ao basis" (spherical)
                      -----
  N (Nitrogen)
  ------------
            Exponent  Coefficients 
       -------------- ---------------------------------------------------------
  1 S  6.29348000E+03  0.001970
  1 S  9.49044000E+02  0.014961
  1 S  2.18776000E+02  0.073501
  1 S  6.36916000E+01  0.248937
  1 S  1.88282000E+01  0.602460
  1 S  2.72023000E+00  0.256202

  2 S  3.06331000E+01  0.111906
  2 S  7.02614000E+00  0.921666
  2 S  2.11205000E+00 -0.002569

  3 P  3.06331000E+01  0.038312
  3 P  7.02614000E+00  0.237403
  3 P  2.11205000E+00  0.817592

  4 S  6.84009000E-01  1.000000

  5 P  6.84009000E-01  1.000000

  6 S  2.00878000E-01  1.000000

  7 P  2.00878000E-01  1.000000

  8 S  6.39000000E-02  1.000000

  9 P  6.39000000E-02  1.000000

 10 D  1.82600000E+00  1.000000

 11 D  4.56500000E-01  1.000000

 12 F  1.00000000E+00  1.000000

  H (Hydrogen)
  ------------
            Exponent  Coefficients 
       -------------- ---------------------------------------------------------
  1 S  3.38650000E+01  0.025494
  1 S  5.09479000E+00  0.190373
  1 S  1.15879000E+00  0.852161

  2 S  3.25840000E-01  1.000000

  3 S  1.02741000E-01  1.000000

  4 S  3.60000000E-02  1.000000

  5 P  1.50000000E+00  1.000000

  6 P  3.75000000E-01  1.000000



 Summary of "ao basis" -> "ao basis" (spherical)
 ------------------------------------------------------------------------------
       Tag                 Description            Shells   Functions and Types
 ---------------- ------------------------------  ------  ---------------------
 N                         g3mp2large               12       34   5s4p2d1f
 H                         g3mp2large                6       10   4s2p




    ~~~~~~~~~~~~~~~~~~~~~~~~~~~~~~~~~~~~~~~~~~~~~~~~~~~~~~~NWChem6.5
               SUMMARY OF G3(MP2,CCSD(T)) CALCULATIONS              
    ~~~~~~~~~~~~~~~~~~~~~~~~~~~~~~~~~~~~~~~~~~~~~~~~~~~~~~~~~~~~~~~~
    MP2/6-31G(d)    =   -56.354212   CCSD(T)/6-31G(d) =   -56.372045
    MP2/G3MP2large  =   -56.448169   delta(MP2)       =    -0.093957
    ZPE(HF/6-31G(d))=     0.033039   ZPE Scale Factor =     0.892900
    HLC             =    -0.036680   Free Energy      =     0.000000
    Thermal Energy  =     0.039834   Thermal Enthalpy =     0.040778
    ~~~~~~~~~~~~~~~~~~~~~~~~~~~~~~~~~~~~~~~~~~~~~~~~~~~~~~~~~~~~~~~~
    E(G3(MP2)) @ 0K =   -56.469642   E(G3(MP2)) @298K =   -56.466810
    H(G3(MP2))      =   -56.463034   G(G3(MP2))       =     0.000000
    ~~~~~~~~~~~~~~~~~~~~~~~~~~~~~~~~~~~~~~~~~~~~~~~~~~~~~~~~~~~~~~~~
    ~~~~~~~~~~~~~~~~~~~~~~~~~~~~~~~~~~~~~~~~~~~~~~~~~~~~~~~~~~~~~~~~
          HEAT OF FORMATION   (0K):      -8.41 kCal/mol
          HEAT OF FORMATION (298K):     -10.70 kCal/mol
    ~~~~~~~~~~~~~~~~~~~~~~~~~~~~~~~~~~~~~~~~~~~~~~~~~~~~~~~~~~~~~~~~


                                     CITATION
                                     --------
                Please cite the following reference when publishing
                           results obtained with NWChem:

                 M. Valiev, E.J. Bylaska, N. Govind, K. Kowalski,
              T.P. Straatsma, H.J.J. van Dam, D. Wang, J. Nieplocha,
                        E. Apra, T.L. Windus, W.A. de Jong
                 "NWChem: a comprehensive and scalable open-source
                  solution for large scale molecular simulations"
                      Comput. Phys. Commun. 181, 1477 (2010)
                           doi:10.1016/j.cpc.2010.04.018

                                      AUTHORS
                                      -------
          E. Apra, E. J. Bylaska, W. A. de Jong, N. Govind, K. Kowalski,
       T. P. Straatsma, M. Valiev, H. J. J. van Dam, D. Wang, T. L. Windus,
        J. Hammond, J. Autschbach, K. Bhaskaran-Nair, J. Brabec, K. Lopata,
        S. Krishnamoorthy, W. Ma, M. Klemm, O. Villa, Y. Chen, V. Anisimov,
    F. Aquino, S. Hirata, M. T. Hackler, T. Risthaus, M. Malagoli, A. Marenich,
   A. Otero-de-la-Roza, J. Mullin, P. Nichols, R. Peverati, J. Pittner, Y. Zhao,
          P.-D. Fan, A. Fonari, M. Williamson, R. J. Harrison, M. Dupuis,
     D. Silverstein, D. M. A. Smith, J. Nieplocha, V. Tipparaju, M. Krishnan,
       B. E. Van Kuiken, A. Vazquez-Mayagoitia, L. Jensen, M. Swart, Q. Wu,
   T. Van Voorhis, A. A. Auer, M. Nooijen, L. D. Crosby, E. Brown, G. Cisneros,
     G. I. Fann, H. Fruchtl, J. Garza, K. Hirao, R. A. Kendall, J. A. Nichols,
       K. Tsemekhman, K. Wolinski, J. Anchell, D. E. Bernholdt, P. Borowski,
       T. Clark, D. Clerc, H. Dachsel, M. J. O. Deegan, K. Dyall, D. Elwood,
      E. Glendening, M. Gutowski, A. C. Hess, J. Jaffe, B. G. Johnson, J. Ju,
        R. Kobayashi, R. Kutteh, Z. Lin, R. Littlefield, X. Long, B. Meng,
      T. Nakajima, S. Niu, L. Pollack, M. Rosing, K. Glaesemann, G. Sandrone,
      M. Stave, H. Taylor, G. Thomas, J. H. van Lenthe, A. T. Wong, Z. Zhang.

 Total times  cpu:        8.4s     wall:        8.7s
